<?xml version="1.0" encoding="UTF-8"?>

<!-- generated on 2022-08-10 22:08:50 by Eclipse SUMO sumo Version 1.9.2
<configuration xmlns:xsi="http://www.w3.org/2001/XMLSchema-instance" xsi:noNamespaceSchemaLocation="http://sumo.dlr.de/xsd/sumoConfiguration.xsd">

    <input>
        <net-file value="./sumocfg/cross.net.xml"/>
        <route-files value="./sumocfg/cross.rou.xml"/>
        <additional-files value="./sumocfg/cross.det.xml"/>
    </input>

    <output>
        <tripinfo-output value="tripinfo.xml"/>
    </output>

    <time>
        <begin value="0"/>
    </time>

    <report>
        <verbose value="true"/>
        <no-step-log value="true"/>
    </report>

    <traci_server>
        <remote-port value="52576"/>
    </traci_server>

</configuration>
-->

<tripinfos xmlns:xsi="http://www.w3.org/2001/XMLSchema-instance" xsi:noNamespaceSchemaLocation="http://sumo.dlr.de/xsd/tripinfo_file.xsd">
    <tripinfo id="right_0" depart="3.00" departLane="51o_0" departPos="5.10" departSpeed="0.00" departDelay="0.00" arrival="96.00" arrivalLane="52i_0" arrivalPos="10.00" arrivalSpeed="12.06" duration="93.00" routeLength="1015.10" waitingTime="0.00" waitingCount="0" stopTime="0.00" timeLoss="19.04" rerouteNo="0" devices="tripinfo_right_0" vType="HV" speedFactor="1.06" vaporized=""/>
    <tripinfo id="up_1" depart="4.00" departLane="53o_0" departPos="5.10" departSpeed="0.00" departDelay="0.00" arrival="112.00" arrivalLane="54i_0" arrivalPos="10.00" arrivalSpeed="10.87" duration="108.00" routeLength="1015.10" waitingTime="3.00" waitingCount="1" stopTime="0.00" timeLoss="28.82" rerouteNo="0" devices="tripinfo_up_1" vType="HV" speedFactor="0.94" vaporized=""/>
    <tripinfo id="left_3" depart="14.00" departLane="52o_0" departPos="5.10" departSpeed="0.00" departDelay="0.00" arrival="115.00" arrivalLane="51i_0" arrivalPos="10.00" arrivalSpeed="12.40" duration="101.00" routeLength="1015.10" waitingTime="3.00" waitingCount="1" stopTime="0.00" timeLoss="28.18" rerouteNo="0" devices="tripinfo_left_3" vType="HV" speedFactor="1.08" vaporized=""/>
    <tripinfo id="right_2" depart="14.00" departLane="51o_0" departPos="5.10" departSpeed="0.00" departDelay="0.00" arrival="127.00" arrivalLane="52i_0" arrivalPos="10.00" arrivalSpeed="11.47" duration="113.00" routeLength="1015.10" waitingTime="12.00" waitingCount="1" stopTime="0.00" timeLoss="37.47" rerouteNo="0" devices="tripinfo_right_2" vType="HV" speedFactor="1.01" vaporized=""/>
    <tripinfo id="left_4" depart="24.00" departLane="52o_0" departPos="5.10" departSpeed="0.00" departDelay="0.00" arrival="135.00" arrivalLane="51i_0" arrivalPos="10.00" arrivalSpeed="11.68" duration="111.00" routeLength="1015.10" waitingTime="11.00" waitingCount="1" stopTime="0.00" timeLoss="36.48" rerouteNo="0" devices="tripinfo_left_4" vType="HV" speedFactor="1.03" vaporized=""/>
    <tripinfo id="down_5" depart="26.00" departLane="54o_0" departPos="5.10" departSpeed="0.00" departDelay="0.00" arrival="153.00" arrivalLane="53i_0" arrivalPos="10.00" arrivalSpeed="9.59" duration="127.00" routeLength="1015.10" waitingTime="16.00" waitingCount="1" stopTime="0.00" timeLoss="41.02" rerouteNo="0" devices="tripinfo_down_5" vType="HV" speedFactor="0.83" vaporized=""/>
    <tripinfo id="up_9" depart="33.00" departLane="53o_0" departPos="5.10" departSpeed="0.00" departDelay="0.00" arrival="161.00" arrivalLane="54i_0" arrivalPos="10.00" arrivalSpeed="10.16" duration="128.00" routeLength="1015.10" waitingTime="19.00" waitingCount="1" stopTime="0.00" timeLoss="43.93" rerouteNo="0" devices="tripinfo_up_9" vType="HV" speedFactor="0.86" vaporized=""/>
    <tripinfo id="right_10" depart="37.00" departLane="51o_0" departPos="5.10" departSpeed="0.00" departDelay="0.00" arrival="161.00" arrivalLane="52i_0" arrivalPos="10.00" arrivalSpeed="12.36" duration="124.00" routeLength="1015.10" waitingTime="25.00" waitingCount="1" stopTime="0.00" timeLoss="51.56" rerouteNo="0" devices="tripinfo_right_10" vType="HV" speedFactor="1.09" vaporized=""/>
    <tripinfo id="left_6" depart="29.00" departLane="52o_0" departPos="5.10" departSpeed="0.00" departDelay="2.00" arrival="174.00" arrivalLane="51i_0" arrivalPos="10.00" arrivalSpeed="11.85" duration="145.00" routeLength="1015.10" waitingTime="44.00" waitingCount="2" stopTime="0.00" timeLoss="70.67" rerouteNo="0" devices="tripinfo_left_6" vType="HV" speedFactor="1.05" vaporized=""/>
    <tripinfo id="down_13" depart="43.00" departLane="54o_0" departPos="5.10" departSpeed="0.00" departDelay="0.00" arrival="183.00" arrivalLane="53i_0" arrivalPos="10.00" arrivalSpeed="12.96" duration="140.00" routeLength="1015.10" waitingTime="43.00" waitingCount="1" stopTime="0.00" timeLoss="68.83" rerouteNo="0" devices="tripinfo_down_13" vType="HV" speedFactor="1.12" vaporized=""/>
    <tripinfo id="up_12" depart="39.00" departLane="53o_0" departPos="5.10" departSpeed="0.00" departDelay="0.00" arrival="198.00" arrivalLane="54i_0" arrivalPos="10.00" arrivalSpeed="11.37" duration="159.00" routeLength="1015.10" waitingTime="60.00" waitingCount="1" stopTime="0.00" timeLoss="85.12" rerouteNo="0" devices="tripinfo_up_12" vType="HV" speedFactor="1.05" vaporized=""/>
    <tripinfo id="right_11" depart="42.00" departLane="51o_0" departPos="5.10" departSpeed="0.00" departDelay="3.00" arrival="211.00" arrivalLane="52i_0" arrivalPos="10.00" arrivalSpeed="11.97" duration="169.00" routeLength="1015.10" waitingTime="68.00" waitingCount="1" stopTime="0.00" timeLoss="94.15" rerouteNo="0" devices="tripinfo_right_11" vType="HV" speedFactor="1.03" vaporized=""/>
    <tripinfo id="left_7" depart="34.00" departLane="52o_0" departPos="5.10" departSpeed="0.00" departDelay="6.00" arrival="229.00" arrivalLane="51i_0" arrivalPos="10.00" arrivalSpeed="10.22" duration="195.00" routeLength="1015.10" waitingTime="82.00" waitingCount="3" stopTime="0.00" timeLoss="113.23" rerouteNo="0" devices="tripinfo_left_7" vType="HV" speedFactor="0.89" vaporized=""/>
    <tripinfo id="down_22" depart="67.00" departLane="54o_0" departPos="5.10" departSpeed="0.00" departDelay="0.00" arrival="236.00" arrivalLane="53i_0" arrivalPos="10.00" arrivalSpeed="10.64" duration="169.00" routeLength="1015.10" waitingTime="63.00" waitingCount="2" stopTime="0.00" timeLoss="91.78" rerouteNo="0" devices="tripinfo_down_22" vType="HV" speedFactor="0.98" vaporized=""/>
    <tripinfo id="up_14" depart="44.00" departLane="53o_0" departPos="5.10" departSpeed="0.00" departDelay="1.00" arrival="248.00" arrivalLane="54i_0" arrivalPos="10.00" arrivalSpeed="11.29" duration="204.00" routeLength="1015.10" waitingTime="96.00" waitingCount="2" stopTime="0.00" timeLoss="127.43" rerouteNo="0" devices="tripinfo_up_14" vType="HV" speedFactor="0.99" vaporized=""/>
    <tripinfo id="right_17" depart="49.00" departLane="51o_0" departPos="5.10" departSpeed="0.00" departDelay="0.00" arrival="263.00" arrivalLane="52i_0" arrivalPos="10.00" arrivalSpeed="10.89" duration="214.00" routeLength="1015.10" waitingTime="106.00" waitingCount="2" stopTime="0.00" timeLoss="134.69" rerouteNo="0" devices="tripinfo_right_17" vType="HV" speedFactor="0.94" vaporized=""/>
    <tripinfo id="left_8" depart="40.00" departLane="52o_0" departPos="5.10" departSpeed="0.00" departDelay="7.00" arrival="276.00" arrivalLane="51i_0" arrivalPos="10.00" arrivalSpeed="11.05" duration="236.00" routeLength="1015.10" waitingTime="118.00" waitingCount="3" stopTime="0.00" timeLoss="156.35" rerouteNo="0" devices="tripinfo_left_8" vType="HV" speedFactor="0.94" vaporized=""/>
    <tripinfo id="down_32" depart="92.00" departLane="54o_0" departPos="5.10" departSpeed="0.00" departDelay="0.00" arrival="284.00" arrivalLane="53i_0" arrivalPos="10.00" arrivalSpeed="11.37" duration="192.00" routeLength="1015.10" waitingTime="84.00" waitingCount="2" stopTime="0.00" timeLoss="115.90" rerouteNo="0" devices="tripinfo_down_32" vType="HV" speedFactor="1.01" vaporized=""/>
    <tripinfo id="up_15" depart="49.00" departLane="53o_0" departPos="5.10" departSpeed="0.00" departDelay="5.00" arrival="300.00" arrivalLane="54i_0" arrivalPos="10.00" arrivalSpeed="10.32" duration="251.00" routeLength="1015.10" waitingTime="133.00" waitingCount="3" stopTime="0.00" timeLoss="170.83" rerouteNo="0" devices="tripinfo_up_15" vType="HV" speedFactor="0.93" vaporized=""/>
    <tripinfo id="right_20" depart="57.00" departLane="51o_0" departPos="5.10" departSpeed="0.00" departDelay="0.00" arrival="308.00" arrivalLane="52i_0" arrivalPos="10.00" arrivalSpeed="11.56" duration="251.00" routeLength="1015.10" waitingTime="139.00" waitingCount="3" stopTime="0.00" timeLoss="175.82" rerouteNo="0" devices="tripinfo_right_20" vType="HV" speedFactor="1.02" vaporized=""/>
    <tripinfo id="left_19" depart="56.00" departLane="52o_0" departPos="5.10" departSpeed="0.00" departDelay="0.00" arrival="314.00" arrivalLane="51i_0" arrivalPos="10.00" arrivalSpeed="12.70" duration="258.00" routeLength="1015.10" waitingTime="147.00" waitingCount="4" stopTime="0.00" timeLoss="188.10" rerouteNo="0" devices="tripinfo_left_19" vType="HV" speedFactor="1.16" vaporized=""/>
    <tripinfo id="down_36" depart="97.00" departLane="54o_0" departPos="5.10" departSpeed="0.00" departDelay="1.00" arrival="332.00" arrivalLane="53i_0" arrivalPos="10.00" arrivalSpeed="10.76" duration="235.00" routeLength="1015.10" waitingTime="124.00" waitingCount="3" stopTime="0.00" timeLoss="157.74" rerouteNo="0" devices="tripinfo_down_36" vType="HV" speedFactor="0.97" vaporized=""/>
    <tripinfo id="up_16" depart="55.00" departLane="53o_0" departPos="5.10" departSpeed="0.00" departDelay="9.00" arrival="349.00" arrivalLane="54i_0" arrivalPos="10.00" arrivalSpeed="10.00" duration="294.00" routeLength="1015.10" waitingTime="169.00" waitingCount="4" stopTime="0.00" timeLoss="211.92" rerouteNo="0" devices="tripinfo_up_16" vType="HV" speedFactor="0.88" vaporized=""/>
    <tripinfo id="right_24" depart="68.00" departLane="51o_0" departPos="5.10" departSpeed="0.00" departDelay="0.00" arrival="365.00" arrivalLane="52i_0" arrivalPos="10.00" arrivalSpeed="9.42" duration="297.00" routeLength="1015.10" waitingTime="165.00" waitingCount="4" stopTime="0.00" timeLoss="209.65" rerouteNo="0" devices="tripinfo_right_24" vType="HV" speedFactor="0.83" vaporized=""/>
    <tripinfo id="left_25" depart="69.00" departLane="52o_0" departPos="5.10" departSpeed="0.00" departDelay="0.00" arrival="375.00" arrivalLane="51i_0" arrivalPos="10.00" arrivalSpeed="10.05" duration="306.00" routeLength="1015.10" waitingTime="173.00" waitingCount="5" stopTime="0.00" timeLoss="223.18" rerouteNo="0" devices="tripinfo_left_25" vType="HV" speedFactor="0.87" vaporized=""/>
    <tripinfo id="up_18" depart="60.00" departLane="53o_0" departPos="5.10" departSpeed="0.00" departDelay="5.00" arrival="383.00" arrivalLane="54i_0" arrivalPos="10.00" arrivalSpeed="10.74" duration="323.00" routeLength="1015.10" waitingTime="192.00" waitingCount="5" stopTime="0.00" timeLoss="243.67" rerouteNo="0" devices="tripinfo_up_18" vType="HV" speedFactor="0.94" vaporized=""/>
    <tripinfo id="right_26" depart="73.00" departLane="51o_0" departPos="5.10" departSpeed="0.00" departDelay="3.00" arrival="396.00" arrivalLane="52i_0" arrivalPos="10.00" arrivalSpeed="10.72" duration="323.00" routeLength="1015.10" waitingTime="193.00" waitingCount="5" stopTime="0.00" timeLoss="242.84" rerouteNo="0" devices="tripinfo_right_26" vType="HV" speedFactor="0.92" vaporized=""/>
    <tripinfo id="left_27" depart="74.00" departLane="52o_0" departPos="5.10" departSpeed="0.00" departDelay="3.00" arrival="406.00" arrivalLane="51i_0" arrivalPos="10.00" arrivalSpeed="10.91" duration="332.00" routeLength="1015.10" waitingTime="197.00" waitingCount="6" stopTime="0.00" timeLoss="253.21" rerouteNo="0" devices="tripinfo_left_27" vType="HV" speedFactor="0.95" vaporized=""/>
    <tripinfo id="up_21" depart="65.00" departLane="53o_0" departPos="5.10" departSpeed="0.00" departDelay="8.00" arrival="415.00" arrivalLane="54i_0" arrivalPos="10.00" arrivalSpeed="11.45" duration="350.00" routeLength="1015.10" waitingTime="216.00" waitingCount="6" stopTime="0.00" timeLoss="274.40" rerouteNo="0" devices="tripinfo_up_21" vType="HV" speedFactor="1.01" vaporized=""/>
    <tripinfo id="right_29" depart="78.00" departLane="51o_0" departPos="5.10" departSpeed="0.00" departDelay="0.00" arrival="431.00" arrivalLane="52i_0" arrivalPos="10.00" arrivalSpeed="10.53" duration="353.00" routeLength="1015.10" waitingTime="218.00" waitingCount="6" stopTime="0.00" timeLoss="273.21" rerouteNo="0" devices="tripinfo_right_29" vType="HV" speedFactor="0.93" vaporized=""/>
    <tripinfo id="up_23" depart="71.00" departLane="53o_0" departPos="5.10" departSpeed="0.00" departDelay="4.00" arrival="444.00" arrivalLane="54i_0" arrivalPos="10.00" arrivalSpeed="9.99" duration="373.00" routeLength="1015.10" waitingTime="228.00" waitingCount="7" stopTime="0.00" timeLoss="291.53" rerouteNo="0" devices="tripinfo_up_23" vType="HV" speedFactor="0.89" vaporized=""/>
    <tripinfo id="right_31" depart="90.00" departLane="51o_0" departPos="5.10" departSpeed="0.00" departDelay="0.00" arrival="446.00" arrivalLane="52i_0" arrivalPos="10.00" arrivalSpeed="12.68" duration="356.00" routeLength="1015.10" waitingTime="222.00" waitingCount="7" stopTime="0.00" timeLoss="286.09" rerouteNo="0" devices="tripinfo_right_31" vType="HV" speedFactor="1.15" vaporized=""/>
    <tripinfo id="up_28" depart="76.00" departLane="53o_0" departPos="5.10" departSpeed="0.00" departDelay="0.00" arrival="460.00" arrivalLane="54i_0" arrivalPos="10.00" arrivalSpeed="12.62" duration="384.00" routeLength="1015.10" waitingTime="240.00" waitingCount="8" stopTime="0.00" timeLoss="312.74" rerouteNo="0" devices="tripinfo_up_28" vType="HV" speedFactor="1.13" vaporized=""/>
    <tripinfo id="right_33" depart="95.00" departLane="51o_0" departPos="5.10" departSpeed="0.00" departDelay="0.00" arrival="470.00" arrivalLane="52i_0" arrivalPos="10.00" arrivalSpeed="13.24" duration="375.00" routeLength="1015.10" waitingTime="232.00" waitingCount="8" stopTime="0.00" timeLoss="305.44" rerouteNo="0" devices="tripinfo_right_33" vType="HV" speedFactor="1.17" vaporized=""/>
    <tripinfo id="up_30" depart="81.00" departLane="53o_0" departPos="5.10" departSpeed="0.00" departDelay="2.00" arrival="483.00" arrivalLane="54i_0" arrivalPos="10.00" arrivalSpeed="13.55" duration="402.00" routeLength="1015.10" waitingTime="246.00" waitingCount="9" stopTime="0.00" timeLoss="332.88" rerouteNo="0" devices="tripinfo_up_30" vType="HV" speedFactor="1.18" vaporized=""/>
    <tripinfo id="right_35" depart="100.00" departLane="51o_0" departPos="5.10" departSpeed="0.00" departDelay="4.00" arrival="499.00" arrivalLane="52i_0" arrivalPos="10.00" arrivalSpeed="11.74" duration="399.00" routeLength="1015.10" waitingTime="239.00" waitingCount="9" stopTime="0.00" timeLoss="323.91" rerouteNo="0" devices="tripinfo_right_35" vType="HV" speedFactor="1.02" vaporized=""/>
    <tripinfo id="up_34" depart="95.00" departLane="53o_0" departPos="5.10" departSpeed="0.00" departDelay="0.00" arrival="511.00" arrivalLane="54i_0" arrivalPos="10.00" arrivalSpeed="10.79" duration="416.00" routeLength="1015.10" waitingTime="249.00" waitingCount="10" stopTime="0.00" timeLoss="339.77" rerouteNo="0" devices="tripinfo_up_34" vType="HV" speedFactor="0.99" vaporized=""/>
</tripinfos>
