<?xml version="1.0" encoding="UTF-8"?>

<!-- generated on 2022-07-24 23:48:17 by Eclipse SUMO sumo Version 1.9.2
<configuration xmlns:xsi="http://www.w3.org/2001/XMLSchema-instance" xsi:noNamespaceSchemaLocation="http://sumo.dlr.de/xsd/sumoConfiguration.xsd">

    <input>
        <net-file value="./data/cross.net.xml"/>
        <route-files value="./data/cross.rou.xml"/>
        <additional-files value="./data/cross.det.xml"/>
    </input>

    <output>
        <tripinfo-output value="tripinfo.xml"/>
    </output>

    <time>
        <begin value="0"/>
    </time>

    <report>
        <verbose value="true"/>
        <no-step-log value="true"/>
    </report>

    <traci_server>
        <remote-port value="50014"/>
    </traci_server>

</configuration>
-->

<tripinfos xmlns:xsi="http://www.w3.org/2001/XMLSchema-instance" xsi:noNamespaceSchemaLocation="http://sumo.dlr.de/xsd/tripinfo_file.xsd">
    <tripinfo id="left_0" depart="3.00" departLane="52o_0" departPos="5.10" departSpeed="0.00" departDelay="0.00" arrival="94.00" arrivalLane="51i_0" arrivalPos="10.00" arrivalSpeed="12.09" duration="91.00" routeLength="1015.10" waitingTime="0.00" waitingCount="0" stopTime="0.00" timeLoss="16.96" rerouteNo="0" devices="tripinfo_left_0" vType="HV" speedFactor="1.06" vaporized=""/>
    <tripinfo id="up_1" depart="9.00" departLane="53o_0" departPos="5.10" departSpeed="0.00" departDelay="0.00" arrival="105.00" arrivalLane="54i_0" arrivalPos="10.00" arrivalSpeed="10.91" duration="96.00" routeLength="1015.10" waitingTime="0.00" waitingCount="0" stopTime="0.00" timeLoss="17.21" rerouteNo="0" devices="tripinfo_up_1" vType="HV" speedFactor="0.94" vaporized=""/>
    <tripinfo id="up_2" depart="14.00" departLane="53o_0" departPos="5.10" departSpeed="0.00" departDelay="0.00" arrival="114.00" arrivalLane="54i_0" arrivalPos="10.00" arrivalSpeed="11.98" duration="100.00" routeLength="1015.10" waitingTime="0.00" waitingCount="0" stopTime="0.00" timeLoss="24.57" rerouteNo="0" devices="tripinfo_up_2" vType="HV" speedFactor="1.01" vaporized=""/>
    <tripinfo id="up_3" depart="19.00" departLane="53o_0" departPos="5.10" departSpeed="0.00" departDelay="4.00" arrival="122.00" arrivalLane="54i_0" arrivalPos="10.00" arrivalSpeed="12.56" duration="103.00" routeLength="1015.10" waitingTime="4.00" waitingCount="1" stopTime="0.00" timeLoss="30.53" rerouteNo="0" devices="tripinfo_up_3" vType="HV" speedFactor="1.08" vaporized=""/>
    <tripinfo id="right_4" depart="27.00" departLane="51o_0" departPos="5.10" departSpeed="0.00" departDelay="0.00" arrival="133.00" arrivalLane="52i_0" arrivalPos="10.00" arrivalSpeed="11.75" duration="106.00" routeLength="1015.10" waitingTime="6.00" waitingCount="1" stopTime="0.00" timeLoss="31.00" rerouteNo="0" devices="tripinfo_right_4" vType="HV" speedFactor="1.03" vaporized=""/>
    <tripinfo id="right_6" depart="37.00" departLane="51o_0" departPos="5.10" departSpeed="0.00" departDelay="0.00" arrival="150.00" arrivalLane="52i_0" arrivalPos="10.00" arrivalSpeed="11.64" duration="113.00" routeLength="1015.10" waitingTime="14.00" waitingCount="1" stopTime="0.00" timeLoss="38.85" rerouteNo="0" devices="tripinfo_right_6" vType="HV" speedFactor="1.05" vaporized=""/>
    <tripinfo id="down_5" depart="32.00" departLane="54o_0" departPos="5.10" departSpeed="0.00" departDelay="0.00" arrival="151.00" arrivalLane="53i_0" arrivalPos="10.00" arrivalSpeed="9.69" duration="119.00" routeLength="1015.10" waitingTime="8.00" waitingCount="1" stopTime="0.00" timeLoss="32.98" rerouteNo="0" devices="tripinfo_down_5" vType="HV" speedFactor="0.83" vaporized=""/>
    <tripinfo id="down_7" depart="49.00" departLane="54o_0" departPos="5.10" departSpeed="0.00" departDelay="0.00" arrival="169.00" arrivalLane="53i_0" arrivalPos="10.00" arrivalSpeed="10.34" duration="120.00" routeLength="1015.10" waitingTime="14.00" waitingCount="1" stopTime="0.00" timeLoss="37.92" rerouteNo="0" devices="tripinfo_down_7" vType="HV" speedFactor="0.89" vaporized=""/>
    <tripinfo id="left_10" depart="51.00" departLane="52o_0" departPos="5.10" departSpeed="0.00" departDelay="0.00" arrival="171.00" arrivalLane="51i_0" arrivalPos="10.00" arrivalSpeed="12.48" duration="120.00" routeLength="1015.10" waitingTime="22.00" waitingCount="1" stopTime="0.00" timeLoss="47.43" rerouteNo="0" devices="tripinfo_left_10" vType="HV" speedFactor="1.09" vaporized=""/>
    <tripinfo id="right_8" depart="50.00" departLane="51o_0" departPos="5.10" departSpeed="0.00" departDelay="0.00" arrival="186.00" arrivalLane="52i_0" arrivalPos="10.00" arrivalSpeed="10.53" duration="136.00" routeLength="1015.10" waitingTime="28.00" waitingCount="2" stopTime="0.00" timeLoss="57.15" rerouteNo="0" devices="tripinfo_right_8" vType="HV" speedFactor="0.94" vaporized=""/>
    <tripinfo id="up_13" depart="58.00" departLane="53o_0" departPos="5.10" departSpeed="0.00" departDelay="0.00" arrival="190.00" arrivalLane="54i_0" arrivalPos="10.00" arrivalSpeed="12.74" duration="132.00" routeLength="1015.10" waitingTime="34.00" waitingCount="1" stopTime="0.00" timeLoss="60.97" rerouteNo="0" devices="tripinfo_up_13" vType="HV" speedFactor="1.12" vaporized=""/>
    <tripinfo id="down_15" depart="73.00" departLane="54o_0" departPos="5.10" departSpeed="0.00" departDelay="0.00" arrival="206.00" arrivalLane="53i_0" arrivalPos="10.00" arrivalSpeed="10.46" duration="133.00" routeLength="1015.10" waitingTime="30.00" waitingCount="1" stopTime="0.00" timeLoss="53.25" rerouteNo="0" devices="tripinfo_down_15" vType="HV" speedFactor="0.93" vaporized=""/>
    <tripinfo id="left_11" depart="56.00" departLane="52o_0" departPos="5.10" departSpeed="0.00" departDelay="0.00" arrival="212.00" arrivalLane="51i_0" arrivalPos="10.00" arrivalSpeed="11.98" duration="156.00" routeLength="1015.10" waitingTime="55.00" waitingCount="1" stopTime="0.00" timeLoss="80.83" rerouteNo="0" devices="tripinfo_left_11" vType="HV" speedFactor="1.03" vaporized=""/>
    <tripinfo id="right_9" depart="55.00" departLane="51o_0" departPos="5.10" departSpeed="0.00" departDelay="4.00" arrival="232.00" arrivalLane="52i_0" arrivalPos="10.00" arrivalSpeed="10.30" duration="177.00" routeLength="1015.10" waitingTime="61.00" waitingCount="2" stopTime="0.00" timeLoss="93.39" rerouteNo="0" devices="tripinfo_right_9" vType="HV" speedFactor="0.86" vaporized=""/>
    <tripinfo id="up_18" depart="77.00" departLane="53o_0" departPos="5.10" departSpeed="0.00" departDelay="0.00" arrival="240.00" arrivalLane="54i_0" arrivalPos="10.00" arrivalSpeed="10.80" duration="163.00" routeLength="1015.10" waitingTime="58.00" waitingCount="1" stopTime="0.00" timeLoss="83.46" rerouteNo="0" devices="tripinfo_up_18" vType="HV" speedFactor="0.94" vaporized=""/>
    <tripinfo id="down_17" depart="78.00" departLane="54o_0" departPos="5.10" departSpeed="0.00" departDelay="1.00" arrival="252.00" arrivalLane="53i_0" arrivalPos="10.00" arrivalSpeed="11.02" duration="174.00" routeLength="1015.10" waitingTime="67.00" waitingCount="1" stopTime="0.00" timeLoss="94.63" rerouteNo="0" devices="tripinfo_down_17" vType="HV" speedFactor="0.94" vaporized=""/>
    <tripinfo id="left_12" depart="61.00" departLane="52o_0" departPos="5.10" departSpeed="0.00" departDelay="3.00" arrival="259.00" arrivalLane="51i_0" arrivalPos="10.00" arrivalSpeed="12.33" duration="198.00" routeLength="1015.10" waitingTime="92.00" waitingCount="2" stopTime="0.00" timeLoss="123.81" rerouteNo="0" devices="tripinfo_left_12" vType="HV" speedFactor="1.05" vaporized=""/>
    <tripinfo id="right_16" depart="75.00" departLane="51o_0" departPos="5.10" departSpeed="0.00" departDelay="0.00" arrival="279.00" arrivalLane="52i_0" arrivalPos="10.00" arrivalSpeed="10.40" duration="204.00" routeLength="1015.10" waitingTime="85.00" waitingCount="3" stopTime="0.00" timeLoss="121.42" rerouteNo="0" devices="tripinfo_right_16" vType="HV" speedFactor="0.88" vaporized=""/>
    <tripinfo id="up_22" depart="92.00" departLane="53o_0" departPos="5.10" departSpeed="0.00" departDelay="0.00" arrival="286.00" arrivalLane="54i_0" arrivalPos="10.00" arrivalSpeed="11.07" duration="194.00" routeLength="1015.10" waitingTime="87.00" waitingCount="2" stopTime="0.00" timeLoss="116.91" rerouteNo="0" devices="tripinfo_up_22" vType="HV" speedFactor="0.98" vaporized=""/>
    <tripinfo id="left_14" depart="66.00" departLane="52o_0" departPos="5.10" departSpeed="0.00" departDelay="1.00" arrival="297.00" arrivalLane="51i_0" arrivalPos="10.00" arrivalSpeed="11.62" duration="231.00" routeLength="1015.10" waitingTime="118.00" waitingCount="3" stopTime="0.00" timeLoss="154.15" rerouteNo="0" devices="tripinfo_left_14" vType="HV" speedFactor="0.99" vaporized=""/>
    <tripinfo id="right_19" depart="88.00" departLane="51o_0" departPos="5.10" departSpeed="0.00" departDelay="0.00" arrival="303.00" arrivalLane="52i_0" arrivalPos="10.00" arrivalSpeed="13.22" duration="215.00" routeLength="1015.10" waitingTime="106.00" waitingCount="3" stopTime="0.00" timeLoss="144.76" rerouteNo="0" devices="tripinfo_right_19" vType="HV" speedFactor="1.16" vaporized=""/>
    <tripinfo id="up_23" depart="97.00" departLane="53o_0" departPos="5.10" departSpeed="0.00" departDelay="3.00" arrival="326.00" arrivalLane="54i_0" arrivalPos="10.00" arrivalSpeed="10.35" duration="229.00" routeLength="1015.10" waitingTime="110.00" waitingCount="3" stopTime="0.00" timeLoss="147.61" rerouteNo="0" devices="tripinfo_up_23" vType="HV" speedFactor="0.89" vaporized=""/>
    <tripinfo id="left_20" depart="91.00" departLane="52o_0" departPos="5.10" departSpeed="0.00" departDelay="0.00" arrival="332.00" arrivalLane="51i_0" arrivalPos="10.00" arrivalSpeed="11.21" duration="241.00" routeLength="1015.10" waitingTime="125.00" waitingCount="4" stopTime="0.00" timeLoss="165.78" rerouteNo="0" devices="tripinfo_left_20" vType="HV" speedFactor="1.02" vaporized=""/>
    <tripinfo id="left_21" depart="96.00" departLane="52o_0" departPos="5.10" departSpeed="0.00" departDelay="4.00" arrival="345.00" arrivalLane="51i_0" arrivalPos="10.00" arrivalSpeed="11.44" duration="249.00" routeLength="1015.10" waitingTime="122.00" waitingCount="5" stopTime="0.00" timeLoss="173.11" rerouteNo="0" devices="tripinfo_left_21" vType="HV" speedFactor="1.01" vaporized=""/>
</tripinfos>
