<?xml version="1.0" encoding="UTF-8"?>

<!-- generated on 2022-08-09 22:11:17 by Eclipse SUMO sumo Version 1.9.2
<configuration xmlns:xsi="http://www.w3.org/2001/XMLSchema-instance" xsi:noNamespaceSchemaLocation="http://sumo.dlr.de/xsd/sumoConfiguration.xsd">

    <input>
        <net-file value="./sumocfg/cross.net.xml"/>
        <route-files value="./sumocfg/cross.rou.xml"/>
        <additional-files value="./sumocfg/cross.det.xml"/>
    </input>

    <output>
        <tripinfo-output value="tripinfo.xml"/>
    </output>

    <time>
        <begin value="0"/>
    </time>

    <report>
        <verbose value="true"/>
        <no-step-log value="true"/>
    </report>

    <traci_server>
        <remote-port value="53386"/>
    </traci_server>

</configuration>
-->

<tripinfos xmlns:xsi="http://www.w3.org/2001/XMLSchema-instance" xsi:noNamespaceSchemaLocation="http://sumo.dlr.de/xsd/tripinfo_file.xsd">
    <tripinfo id="left_0" depart="0.00" departLane="52o_0" departPos="5.10" departSpeed="0.00" departDelay="0.00" arrival="90.00" arrivalLane="51i_0" arrivalPos="10.00" arrivalSpeed="11.53" duration="90.00" routeLength="1015.10" waitingTime="0.00" waitingCount="0" stopTime="0.00" timeLoss="16.53" rerouteNo="0" devices="tripinfo_left_0" vType="HV" speedFactor="1.06" vaporized=""/>
    <tripinfo id="left_1" depart="5.00" departLane="52o_0" departPos="5.10" departSpeed="0.00" departDelay="1.00" arrival="101.00" arrivalLane="51i_0" arrivalPos="10.00" arrivalSpeed="10.65" duration="96.00" routeLength="1015.10" waitingTime="0.00" waitingCount="0" stopTime="0.00" timeLoss="17.15" rerouteNo="0" devices="tripinfo_left_1" vType="HV" speedFactor="0.94" vaporized=""/>
    <tripinfo id="right_2" depart="5.00" departLane="51o_0" departPos="5.10" departSpeed="0.00" departDelay="0.00" arrival="111.00" arrivalLane="52i_0" arrivalPos="10.00" arrivalSpeed="11.57" duration="106.00" routeLength="1015.10" waitingTime="5.00" waitingCount="1" stopTime="0.00" timeLoss="30.08" rerouteNo="0" devices="tripinfo_right_2" vType="HV" speedFactor="1.01" vaporized=""/>
    <tripinfo id="up_3" depart="9.00" departLane="53o_0" departPos="5.10" departSpeed="0.00" departDelay="0.00" arrival="117.00" arrivalLane="54i_0" arrivalPos="10.00" arrivalSpeed="12.55" duration="108.00" routeLength="1015.10" waitingTime="9.00" waitingCount="1" stopTime="0.00" timeLoss="35.60" rerouteNo="0" devices="tripinfo_up_3" vType="HV" speedFactor="1.08" vaporized=""/>
    <tripinfo id="left_4" depart="16.00" departLane="52o_0" departPos="5.10" departSpeed="0.00" departDelay="0.00" arrival="129.00" arrivalLane="51i_0" arrivalPos="10.00" arrivalSpeed="11.68" duration="113.00" routeLength="1015.10" waitingTime="12.00" waitingCount="1" stopTime="0.00" timeLoss="37.97" rerouteNo="0" devices="tripinfo_left_4" vType="HV" speedFactor="1.03" vaporized=""/>
    <tripinfo id="up_6" depart="35.00" departLane="53o_0" departPos="5.10" departSpeed="0.00" departDelay="0.00" arrival="148.00" arrivalLane="54i_0" arrivalPos="10.00" arrivalSpeed="12.21" duration="113.00" routeLength="1015.10" waitingTime="14.00" waitingCount="1" stopTime="0.00" timeLoss="39.16" rerouteNo="0" devices="tripinfo_up_6" vType="HV" speedFactor="1.05" vaporized=""/>
    <tripinfo id="right_5" depart="20.00" departLane="51o_0" departPos="5.10" departSpeed="0.00" departDelay="0.00" arrival="149.00" arrivalLane="52i_0" arrivalPos="10.00" arrivalSpeed="9.48" duration="129.00" routeLength="1015.10" waitingTime="19.00" waitingCount="1" stopTime="0.00" timeLoss="43.15" rerouteNo="0" devices="tripinfo_right_5" vType="HV" speedFactor="0.83" vaporized=""/>
    <tripinfo id="left_7" depart="45.00" departLane="52o_0" departPos="5.10" departSpeed="0.00" departDelay="0.00" arrival="165.00" arrivalLane="51i_0" arrivalPos="10.00" arrivalSpeed="10.37" duration="120.00" routeLength="1015.10" waitingTime="11.00" waitingCount="1" stopTime="0.00" timeLoss="37.99" rerouteNo="0" devices="tripinfo_left_7" vType="HV" speedFactor="0.89" vaporized=""/>
    <tripinfo id="right_9" depart="48.00" departLane="51o_0" departPos="5.10" departSpeed="0.00" departDelay="0.00" arrival="175.00" arrivalLane="52i_0" arrivalPos="10.00" arrivalSpeed="9.57" duration="127.00" routeLength="1015.10" waitingTime="19.00" waitingCount="1" stopTime="0.00" timeLoss="43.43" rerouteNo="0" devices="tripinfo_right_9" vType="HV" speedFactor="0.86" vaporized=""/>
    <tripinfo id="up_8" depart="47.00" departLane="53o_0" departPos="5.10" departSpeed="0.00" departDelay="0.00" arrival="180.00" arrivalLane="54i_0" arrivalPos="10.00" arrivalSpeed="10.96" duration="133.00" routeLength="1015.10" waitingTime="29.00" waitingCount="2" stopTime="0.00" timeLoss="53.82" rerouteNo="0" devices="tripinfo_up_8" vType="HV" speedFactor="0.94" vaporized=""/>
    <tripinfo id="right_10" depart="79.00" departLane="51o_0" departPos="5.10" departSpeed="0.00" departDelay="0.00" arrival="187.00" arrivalLane="52i_0" arrivalPos="10.00" arrivalSpeed="12.62" duration="108.00" routeLength="1015.10" waitingTime="9.00" waitingCount="1" stopTime="0.00" timeLoss="35.19" rerouteNo="0" devices="tripinfo_right_10" vType="HV" speedFactor="1.09" vaporized=""/>
    <tripinfo id="left_11" depart="81.00" departLane="52o_0" departPos="5.10" departSpeed="0.00" departDelay="0.00" arrival="198.00" arrivalLane="51i_0" arrivalPos="10.00" arrivalSpeed="11.91" duration="117.00" routeLength="1015.10" waitingTime="16.00" waitingCount="1" stopTime="0.00" timeLoss="41.77" rerouteNo="0" devices="tripinfo_left_11" vType="HV" speedFactor="1.03" vaporized=""/>
    <tripinfo id="down_12" depart="86.00" departLane="54o_0" departPos="5.10" departSpeed="0.00" departDelay="0.00" arrival="205.00" arrivalLane="53i_0" arrivalPos="10.00" arrivalSpeed="12.12" duration="119.00" routeLength="1015.10" waitingTime="19.00" waitingCount="1" stopTime="0.00" timeLoss="45.06" rerouteNo="0" devices="tripinfo_down_12" vType="HV" speedFactor="1.05" vaporized=""/>
    <tripinfo id="up_13" depart="92.00" departLane="53o_0" departPos="5.10" departSpeed="0.00" departDelay="0.00" arrival="213.00" arrivalLane="54i_0" arrivalPos="10.00" arrivalSpeed="12.73" duration="121.00" routeLength="1015.10" waitingTime="22.00" waitingCount="1" stopTime="0.00" timeLoss="50.04" rerouteNo="0" devices="tripinfo_up_13" vType="HV" speedFactor="1.12" vaporized=""/>
</tripinfos>
